<?xml version="1.0"?>

<!-- generated on Tue 19 Feb 2013 18:10:56 GMT by SUMO gui Version 0.16.0
<?xml version="1.0" encoding="UTF-8"?>

<configuration xmlns:xsi="http://www.w3.org/2001/XMLSchema-instance" xsi:noNamespaceSchemaLocation="http://sumo.sf.net/xsd/sumo-gui.exeConfiguration.xsd">

    <input>
        <net-file value="../SimpleT/simpleT.net.xml"/>
        <route-files value="../SimpleT/simpleT.rou.xml"/>
        <additional-files value="../SimpleT/simpleT.det.xml"/>
    </input>

    <time>
        <begin value="0"/>
        <step-length value="0.1"/>
    </time>

    <report>
        <no-step-log value="true"/>
    </report>

    <traci_server>
        <remote-port value="8813"/>
    </traci_server>

</configuration>
-->

<detector>
   <interval begin="0.00" end="30.00" id="0" nVehContrib="0" flow="0.00" occupancy="0.00" speed="-1.00" length="-1.00" nVehEntered="0"/>
   <interval begin="0.00" end="30.00" id="1" nVehContrib="0" flow="0.00" occupancy="0.00" speed="-1.00" length="-1.00" nVehEntered="0"/>
   <interval begin="0.00" end="30.00" id="2" nVehContrib="0" flow="0.00" occupancy="0.00" speed="-1.00" length="-1.00" nVehEntered="0"/>
   <interval begin="0.00" end="30.00" id="3" nVehContrib="0" flow="0.00" occupancy="0.00" speed="-1.00" length="-1.00" nVehEntered="0"/>
   <interval begin="0.00" end="30.00" id="4" nVehContrib="0" flow="0.00" occupancy="0.00" speed="-1.00" length="-1.00" nVehEntered="0"/>
   <interval begin="0.00" end="30.00" id="5" nVehContrib="1" flow="120.00" occupancy="1.22" speed="13.61" length="5.00" nVehEntered="1"/>
   <interval begin="0.00" end="30.00" id="6" nVehContrib="0" flow="0.00" occupancy="0.00" speed="-1.00" length="-1.00" nVehEntered="0"/>
   <interval begin="0.00" end="30.00" id="7" nVehContrib="1" flow="120.00" occupancy="1.50" speed="11.09" length="5.00" nVehEntered="1"/>
   <interval begin="0.00" end="30.00" id="8" nVehContrib="0" flow="0.00" occupancy="0.00" speed="-1.00" length="-1.00" nVehEntered="0"/>
   <interval begin="0.00" end="30.00" id="9" nVehContrib="1" flow="120.00" occupancy="1.32" speed="12.67" length="5.00" nVehEntered="1"/>
   <interval begin="0.00" end="30.00" id="10" nVehContrib="1" flow="120.00" occupancy="1.42" speed="11.76" length="5.00" nVehEntered="1"/>
   <interval begin="30.00" end="60.00" id="0" nVehContrib="1" flow="120.00" occupancy="1.26" speed="13.20" length="5.00" nVehEntered="2"/>
   <interval begin="30.00" end="60.00" id="1" nVehContrib="0" flow="0.00" occupancy="0.00" speed="-1.00" length="-1.00" nVehEntered="0"/>
   <interval begin="30.00" end="60.00" id="2" nVehContrib="2" flow="240.00" occupancy="2.78" speed="11.98" length="5.00" nVehEntered="2"/>
   <interval begin="30.00" end="60.00" id="3" nVehContrib="0" flow="0.00" occupancy="0.00" speed="-1.00" length="-1.00" nVehEntered="0"/>
   <interval begin="30.00" end="60.00" id="4" nVehContrib="1" flow="120.00" occupancy="4.21" speed="3.96" length="5.00" nVehEntered="1"/>
   <interval begin="30.00" end="60.00" id="5" nVehContrib="4" flow="480.00" occupancy="4.99" speed="13.37" length="5.00" nVehEntered="5"/>
   <interval begin="30.00" end="60.00" id="6" nVehContrib="0" flow="0.00" occupancy="0.00" speed="-1.00" length="-1.00" nVehEntered="0"/>
   <interval begin="30.00" end="60.00" id="7" nVehContrib="6" flow="720.00" occupancy="9.01" speed="11.11" length="5.00" nVehEntered="6"/>
   <interval begin="30.00" end="60.00" id="8" nVehContrib="0" flow="0.00" occupancy="0.00" speed="-1.00" length="-1.00" nVehEntered="0"/>
   <interval begin="30.00" end="60.00" id="9" nVehContrib="2" flow="240.00" occupancy="2.80" speed="12.05" length="5.00" nVehEntered="2"/>
   <interval begin="30.00" end="60.00" id="10" nVehContrib="2" flow="240.00" occupancy="2.80" speed="11.89" length="5.00" nVehEntered="2"/>
   <interval begin="60.00" end="90.00" id="0" nVehContrib="2" flow="240.00" occupancy="2.40" speed="13.86" length="5.00" nVehEntered="5"/>
   <interval begin="60.00" end="90.00" id="1" nVehContrib="2" flow="240.00" occupancy="2.63" speed="12.75" length="5.00" nVehEntered="2"/>
   <interval begin="60.00" end="90.00" id="2" nVehContrib="3" flow="360.00" occupancy="4.24" speed="11.79" length="5.00" nVehEntered="5"/>
   <interval begin="60.00" end="90.00" id="3" nVehContrib="1" flow="120.00" occupancy="1.42" speed="11.71" length="5.00" nVehEntered="1"/>
   <interval begin="60.00" end="90.00" id="4" nVehContrib="2" flow="240.00" occupancy="8.83" speed="3.78" length="5.00" nVehEntered="2"/>
   <interval begin="60.00" end="90.00" id="5" nVehContrib="3" flow="360.00" occupancy="3.66" speed="13.65" length="5.00" nVehEntered="3"/>
   <interval begin="60.00" end="90.00" id="6" nVehContrib="0" flow="0.00" occupancy="0.00" speed="-1.00" length="-1.00" nVehEntered="0"/>
   <interval begin="60.00" end="90.00" id="7" nVehContrib="3" flow="360.00" occupancy="4.51" speed="11.08" length="5.00" nVehEntered="3"/>
   <interval begin="60.00" end="90.00" id="8" nVehContrib="0" flow="0.00" occupancy="0.00" speed="-1.00" length="-1.00" nVehEntered="0"/>
   <interval begin="60.00" end="90.00" id="9" nVehContrib="0" flow="0.00" occupancy="0.00" speed="-1.00" length="-1.00" nVehEntered="0"/>
   <interval begin="60.00" end="90.00" id="10" nVehContrib="1" flow="120.00" occupancy="1.42" speed="11.76" length="5.00" nVehEntered="1"/>
   <interval begin="90.00" end="120.00" id="0" nVehContrib="2" flow="240.00" occupancy="2.46" speed="13.87" length="5.00" nVehEntered="5"/>
   <interval begin="90.00" end="120.00" id="1" nVehContrib="4" flow="480.00" occupancy="5.69" speed="12.01" length="5.00" nVehEntered="4"/>
   <interval begin="90.00" end="120.00" id="2" nVehContrib="3" flow="360.00" occupancy="4.24" speed="11.80" length="5.00" nVehEntered="6"/>
   <interval begin="90.00" end="120.00" id="3" nVehContrib="3" flow="360.00" occupancy="4.19" speed="11.93" length="5.00" nVehEntered="3"/>
   <interval begin="90.00" end="120.00" id="4" nVehContrib="1" flow="120.00" occupancy="40.63" speed="3.75" length="5.00" nVehEntered="1"/>
   <interval begin="90.00" end="120.00" id="5" nVehContrib="6" flow="720.00" occupancy="7.35" speed="13.61" length="5.00" nVehEntered="6"/>
   <interval begin="90.00" end="120.00" id="6" nVehContrib="0" flow="0.00" occupancy="0.00" speed="-1.00" length="-1.00" nVehEntered="0"/>
   <interval begin="90.00" end="120.00" id="7" nVehContrib="6" flow="720.00" occupancy="9.00" speed="11.11" length="5.00" nVehEntered="6"/>
   <interval begin="90.00" end="120.00" id="8" nVehContrib="0" flow="0.00" occupancy="0.00" speed="-1.00" length="-1.00" nVehEntered="0"/>
   <interval begin="90.00" end="120.00" id="9" nVehContrib="2" flow="240.00" occupancy="3.66" speed="9.28" length="5.00" nVehEntered="2"/>
   <interval begin="90.00" end="120.00" id="10" nVehContrib="1" flow="120.00" occupancy="1.42" speed="11.73" length="5.00" nVehEntered="1"/>
   <interval begin="120.00" end="150.00" id="0" nVehContrib="3" flow="360.00" occupancy="3.61" speed="13.64" length="5.00" nVehEntered="3"/>
   <interval begin="120.00" end="150.00" id="1" nVehContrib="0" flow="0.00" occupancy="0.00" speed="-1.00" length="-1.00" nVehEntered="0"/>
   <interval begin="120.00" end="150.00" id="2" nVehContrib="2" flow="240.00" occupancy="2.78" speed="11.97" length="5.00" nVehEntered="2"/>
   <interval begin="120.00" end="150.00" id="3" nVehContrib="0" flow="0.00" occupancy="0.00" speed="-1.00" length="-1.00" nVehEntered="0"/>
   <interval begin="120.00" end="150.00" id="4" nVehContrib="1" flow="120.00" occupancy="90.97" speed="0.19" length="5.00" nVehEntered="1"/>
   <interval begin="120.00" end="150.00" id="5" nVehContrib="4" flow="480.00" occupancy="5.25" speed="12.75" length="5.00" nVehEntered="6"/>
   <interval begin="120.00" end="150.00" id="6" nVehContrib="1" flow="120.00" occupancy="1.48" speed="11.23" length="5.00" nVehEntered="1"/>
   <interval begin="120.00" end="150.00" id="7" nVehContrib="6" flow="720.00" occupancy="9.02" speed="11.08" length="5.00" nVehEntered="6"/>
   <interval begin="120.00" end="150.00" id="8" nVehContrib="0" flow="0.00" occupancy="0.00" speed="-1.00" length="-1.00" nVehEntered="0"/>
   <interval begin="120.00" end="150.00" id="9" nVehContrib="2" flow="240.00" occupancy="2.90" speed="11.60" length="5.00" nVehEntered="2"/>
   <interval begin="120.00" end="150.00" id="10" nVehContrib="2" flow="240.00" occupancy="2.81" speed="11.85" length="5.00" nVehEntered="2"/>
   <interval begin="150.00" end="180.00" id="0" nVehContrib="1" flow="120.00" occupancy="1.26" speed="13.19" length="5.00" nVehEntered="2"/>
   <interval begin="150.00" end="180.00" id="1" nVehContrib="1" flow="120.00" occupancy="1.21" speed="13.75" length="5.00" nVehEntered="1"/>
   <interval begin="150.00" end="180.00" id="2" nVehContrib="1" flow="120.00" occupancy="1.41" speed="11.82" length="5.00" nVehEntered="2"/>
   <interval begin="150.00" end="180.00" id="3" nVehContrib="1" flow="120.00" occupancy="1.41" speed="11.85" length="5.00" nVehEntered="1"/>
   <interval begin="150.00" end="180.00" id="4" nVehContrib="2" flow="240.00" occupancy="38.45" speed="1.35" length="5.00" nVehEntered="2"/>
   <interval begin="150.00" end="180.00" id="5" nVehContrib="3" flow="360.00" occupancy="3.76" speed="13.31" length="5.00" nVehEntered="3"/>
   <interval begin="150.00" end="180.00" id="6" nVehContrib="0" flow="0.00" occupancy="0.00" speed="-1.00" length="-1.00" nVehEntered="0"/>
   <interval begin="150.00" end="180.00" id="7" nVehContrib="3" flow="360.00" occupancy="4.49" speed="11.14" length="5.00" nVehEntered="3"/>
   <interval begin="150.00" end="180.00" id="8" nVehContrib="0" flow="0.00" occupancy="0.00" speed="-1.00" length="-1.00" nVehEntered="0"/>
   <interval begin="150.00" end="180.00" id="9" nVehContrib="0" flow="0.00" occupancy="0.20" speed="-1.00" length="-1.00" nVehEntered="0"/>
   <interval begin="150.00" end="180.00" id="10" nVehContrib="1" flow="120.00" occupancy="1.43" speed="11.69" length="5.00" nVehEntered="1"/>
   <interval begin="180.00" end="210.00" id="0" nVehContrib="2" flow="240.00" occupancy="2.40" speed="13.87" length="5.00" nVehEntered="3"/>
   <interval begin="180.00" end="210.00" id="1" nVehContrib="1" flow="120.00" occupancy="1.20" speed="13.86" length="5.00" nVehEntered="1"/>
   <interval begin="180.00" end="210.00" id="2" nVehContrib="4" flow="480.00" occupancy="5.63" speed="11.84" length="5.00" nVehEntered="4"/>
   <interval begin="180.00" end="210.00" id="3" nVehContrib="0" flow="0.00" occupancy="0.00" speed="-1.00" length="-1.00" nVehEntered="0"/>
   <interval begin="180.00" end="210.00" id="4" nVehContrib="2" flow="240.00" occupancy="19.40" speed="5.68" length="5.00" nVehEntered="2"/>
   <interval begin="180.00" end="210.00" id="5" nVehContrib="3" flow="360.00" occupancy="4.63" speed="10.93" length="5.00" nVehEntered="6"/>
   <interval begin="180.00" end="210.00" id="6" nVehContrib="2" flow="240.00" occupancy="3.01" speed="11.07" length="5.00" nVehEntered="2"/>
   <interval begin="180.00" end="210.00" id="7" nVehContrib="6" flow="720.00" occupancy="9.03" speed="11.08" length="5.00" nVehEntered="6"/>
   <interval begin="180.00" end="210.00" id="8" nVehContrib="0" flow="0.00" occupancy="0.00" speed="-1.00" length="-1.00" nVehEntered="0"/>
   <interval begin="180.00" end="210.00" id="9" nVehContrib="1" flow="120.00" occupancy="1.12" speed="12.67" length="5.00" nVehEntered="1"/>
   <interval begin="180.00" end="210.00" id="10" nVehContrib="1" flow="120.00" occupancy="1.43" speed="11.68" length="5.00" nVehEntered="1"/>
   <interval begin="210.00" end="240.00" id="0" nVehContrib="3" flow="360.00" occupancy="3.67" speed="13.65" length="5.00" nVehEntered="4"/>
   <interval begin="210.00" end="240.00" id="1" nVehContrib="1" flow="120.00" occupancy="1.21" speed="13.73" length="5.00" nVehEntered="1"/>
   <interval begin="210.00" end="240.00" id="2" nVehContrib="3" flow="360.00" occupancy="4.19" speed="11.94" length="5.00" nVehEntered="4"/>
   <interval begin="210.00" end="240.00" id="3" nVehContrib="0" flow="0.00" occupancy="0.00" speed="-1.00" length="-1.00" nVehEntered="0"/>
   <interval begin="210.00" end="240.00" id="4" nVehContrib="0" flow="0.00" occupancy="44.81" speed="-1.00" length="-1.00" nVehEntered="0"/>
   <interval begin="210.00" end="240.00" id="5" nVehContrib="5" flow="600.00" occupancy="6.19" speed="13.47" length="5.00" nVehEntered="6"/>
   <interval begin="210.00" end="240.00" id="6" nVehContrib="0" flow="0.00" occupancy="0.00" speed="-1.00" length="-1.00" nVehEntered="0"/>
   <interval begin="210.00" end="240.00" id="7" nVehContrib="6" flow="720.00" occupancy="9.05" speed="11.05" length="5.00" nVehEntered="6"/>
   <interval begin="210.00" end="240.00" id="8" nVehContrib="0" flow="0.00" occupancy="0.00" speed="-1.00" length="-1.00" nVehEntered="0"/>
   <interval begin="210.00" end="240.00" id="9" nVehContrib="3" flow="360.00" occupancy="7.16" speed="7.73" length="5.00" nVehEntered="3"/>
   <interval begin="210.00" end="240.00" id="10" nVehContrib="2" flow="240.00" occupancy="2.83" speed="11.79" length="5.00" nVehEntered="2"/>
   <interval begin="240.00" end="270.00" id="0" nVehContrib="1" flow="120.00" occupancy="1.20" speed="13.86" length="5.00" nVehEntered="2"/>
   <interval begin="240.00" end="270.00" id="1" nVehContrib="0" flow="0.00" occupancy="0.00" speed="-1.00" length="-1.00" nVehEntered="0"/>
   <interval begin="240.00" end="270.00" id="2" nVehContrib="1" flow="120.00" occupancy="1.39" speed="11.98" length="5.00" nVehEntered="1"/>
   <interval begin="240.00" end="270.00" id="3" nVehContrib="0" flow="0.00" occupancy="0.00" speed="-1.00" length="-1.00" nVehEntered="0"/>
   <interval begin="240.00" end="270.00" id="4" nVehContrib="2" flow="240.00" occupancy="23.34" speed="1.66" length="5.00" nVehEntered="2"/>
   <interval begin="240.00" end="270.00" id="5" nVehContrib="3" flow="360.00" occupancy="4.53" speed="11.38" length="5.00" nVehEntered="5"/>
   <interval begin="240.00" end="270.00" id="6" nVehContrib="2" flow="240.00" occupancy="3.02" speed="11.02" length="5.00" nVehEntered="2"/>
   <interval begin="240.00" end="270.00" id="7" nVehContrib="5" flow="600.00" occupancy="7.51" speed="11.10" length="5.00" nVehEntered="5"/>
   <interval begin="240.00" end="270.00" id="8" nVehContrib="0" flow="0.00" occupancy="0.00" speed="-1.00" length="-1.00" nVehEntered="0"/>
   <interval begin="240.00" end="270.00" id="9" nVehContrib="1" flow="120.00" occupancy="1.32" speed="12.66" length="5.00" nVehEntered="1"/>
   <interval begin="240.00" end="270.00" id="10" nVehContrib="1" flow="120.00" occupancy="1.41" speed="11.84" length="5.00" nVehEntered="1"/>
   <interval begin="270.00" end="300.00" id="0" nVehContrib="1" flow="120.00" occupancy="1.20" speed="13.87" length="5.00" nVehEntered="3"/>
   <interval begin="270.00" end="300.00" id="1" nVehContrib="2" flow="240.00" occupancy="2.44" speed="13.67" length="5.00" nVehEntered="2"/>
   <interval begin="270.00" end="300.00" id="2" nVehContrib="2" flow="240.00" occupancy="2.80" speed="11.90" length="5.00" nVehEntered="4"/>
   <interval begin="270.00" end="300.00" id="3" nVehContrib="1" flow="120.00" occupancy="1.40" speed="11.95" length="5.00" nVehEntered="1"/>
   <interval begin="270.00" end="300.00" id="4" nVehContrib="1" flow="120.00" occupancy="4.56" speed="3.66" length="5.00" nVehEntered="1"/>
   <interval begin="270.00" end="300.00" id="5" nVehContrib="6" flow="720.00" occupancy="7.30" speed="13.70" length="5.00" nVehEntered="6"/>
   <interval begin="270.00" end="300.00" id="6" nVehContrib="0" flow="0.00" occupancy="0.00" speed="-1.00" length="-1.00" nVehEntered="0"/>
   <interval begin="270.00" end="300.00" id="7" nVehContrib="6" flow="720.00" occupancy="9.00" speed="11.11" length="5.00" nVehEntered="6"/>
   <interval begin="270.00" end="300.00" id="8" nVehContrib="0" flow="0.00" occupancy="0.00" speed="-1.00" length="-1.00" nVehEntered="0"/>
   <interval begin="270.00" end="300.00" id="9" nVehContrib="0" flow="0.00" occupancy="0.00" speed="-1.00" length="-1.00" nVehEntered="0"/>
   <interval begin="270.00" end="300.00" id="10" nVehContrib="0" flow="0.00" occupancy="0.00" speed="-1.00" length="-1.00" nVehEntered="0"/>
   <interval begin="300.00" end="330.00" id="0" nVehContrib="4" flow="480.00" occupancy="5.10" speed="13.19" length="5.00" nVehEntered="5"/>
   <interval begin="300.00" end="330.00" id="1" nVehContrib="1" flow="120.00" occupancy="1.21" speed="13.74" length="5.00" nVehEntered="1"/>
   <interval begin="300.00" end="330.00" id="2" nVehContrib="3" flow="360.00" occupancy="4.22" speed="11.84" length="5.00" nVehEntered="4"/>
   <interval begin="300.00" end="330.00" id="3" nVehContrib="1" flow="120.00" occupancy="1.39" speed="11.96" length="5.00" nVehEntered="1"/>
   <interval begin="300.00" end="330.00" id="4" nVehContrib="1" flow="120.00" occupancy="49.94" speed="0.40" length="5.00" nVehEntered="1"/>
   <interval begin="300.00" end="330.00" id="5" nVehContrib="6" flow="720.00" occupancy="7.67" speed="13.10" length="5.00" nVehEntered="6"/>
   <interval begin="300.00" end="330.00" id="6" nVehContrib="0" flow="0.00" occupancy="0.00" speed="-1.00" length="-1.00" nVehEntered="0"/>
   <interval begin="300.00" end="330.00" id="7" nVehContrib="6" flow="720.00" occupancy="9.00" speed="11.11" length="5.00" nVehEntered="6"/>
   <interval begin="300.00" end="330.00" id="8" nVehContrib="0" flow="0.00" occupancy="0.00" speed="-1.00" length="-1.00" nVehEntered="0"/>
   <interval begin="300.00" end="330.00" id="9" nVehContrib="0" flow="0.00" occupancy="0.00" speed="-1.00" length="-1.00" nVehEntered="0"/>
   <interval begin="300.00" end="330.00" id="10" nVehContrib="0" flow="0.00" occupancy="0.00" speed="-1.00" length="-1.00" nVehEntered="0"/>
   <interval begin="330.00" end="360.00" id="0" nVehContrib="3" flow="360.00" occupancy="4.14" speed="12.27" length="5.00" nVehEntered="6"/>
   <interval begin="330.00" end="360.00" id="1" nVehContrib="3" flow="360.00" occupancy="5.63" speed="9.29" length="5.00" nVehEntered="3"/>
   <interval begin="330.00" end="360.00" id="2" nVehContrib="5" flow="600.00" occupancy="7.03" speed="11.86" length="5.00" nVehEntered="7"/>
   <interval begin="330.00" end="360.00" id="3" nVehContrib="2" flow="240.00" occupancy="2.81" speed="11.88" length="5.00" nVehEntered="2"/>
   <interval begin="330.00" end="360.00" id="4" nVehContrib="1" flow="120.00" occupancy="90.86" speed="0.28" length="5.00" nVehEntered="1"/>
   <interval begin="330.00" end="360.00" id="5" nVehContrib="1" flow="120.00" occupancy="1.85" speed="9.00" length="5.00" nVehEntered="2"/>
   <interval begin="330.00" end="360.00" id="6" nVehContrib="1" flow="120.00" occupancy="1.47" speed="11.37" length="5.00" nVehEntered="1"/>
   <interval begin="330.00" end="360.00" id="7" nVehContrib="2" flow="240.00" occupancy="2.96" speed="11.27" length="5.00" nVehEntered="2"/>
   <interval begin="330.00" end="360.00" id="8" nVehContrib="0" flow="0.00" occupancy="0.00" speed="-1.00" length="-1.00" nVehEntered="0"/>
   <interval begin="330.00" end="360.00" id="9" nVehContrib="1" flow="120.00" occupancy="1.31" speed="12.68" length="5.00" nVehEntered="1"/>
   <interval begin="330.00" end="360.00" id="10" nVehContrib="1" flow="120.00" occupancy="1.43" speed="11.68" length="5.00" nVehEntered="1"/>
   <interval begin="360.00" end="390.00" id="0" nVehContrib="5" flow="600.00" occupancy="6.01" speed="13.87" length="5.00" nVehEntered="5"/>
   <interval begin="360.00" end="390.00" id="1" nVehContrib="0" flow="0.00" occupancy="0.00" speed="-1.00" length="-1.00" nVehEntered="0"/>
   <interval begin="360.00" end="390.00" id="2" nVehContrib="5" flow="600.00" occupancy="6.99" speed="11.93" length="5.00" nVehEntered="5"/>
   <interval begin="360.00" end="390.00" id="3" nVehContrib="0" flow="0.00" occupancy="0.00" speed="-1.00" length="-1.00" nVehEntered="0"/>
   <interval begin="360.00" end="390.00" id="4" nVehContrib="3" flow="360.00" occupancy="49.79" speed="1.75" length="5.00" nVehEntered="3"/>
   <interval begin="360.00" end="390.00" id="5" nVehContrib="2" flow="240.00" occupancy="3.08" speed="13.72" length="5.00" nVehEntered="2"/>
   <interval begin="360.00" end="390.00" id="6" nVehContrib="0" flow="0.00" occupancy="0.00" speed="-1.00" length="-1.00" nVehEntered="0"/>
   <interval begin="360.00" end="390.00" id="7" nVehContrib="2" flow="240.00" occupancy="2.99" speed="11.14" length="5.00" nVehEntered="2"/>
   <interval begin="360.00" end="390.00" id="8" nVehContrib="0" flow="0.00" occupancy="0.00" speed="-1.00" length="-1.00" nVehEntered="0"/>
   <interval begin="360.00" end="390.00" id="9" nVehContrib="1" flow="120.00" occupancy="1.58" speed="10.53" length="5.00" nVehEntered="1"/>
   <interval begin="360.00" end="390.00" id="10" nVehContrib="1" flow="120.00" occupancy="1.42" speed="11.71" length="5.00" nVehEntered="1"/>
</detector>
